<?xml version="1.0"?>
<VTKFile type="UnstructuredGrid"  version="0.1"  >
<UnstructuredGrid>
<Piece  NumberOfPoints="4407" NumberOfCells="13008">
<Points>
<DataArray  type="Float64"  NumberOfComponents="3"  format="ascii">1 0 0  0.9995524322835033 0.02991546616939839 0  0.9982101297677352 0.05980415394503403 0  0.9959742939952391 0.0896393089034333 0  0.9928469263418374 0.1193942245402441 0  0.9888308262251286 0.1490422661761741 0  0.9839295885986298 0.1785568947986363 0  0.9781476007338057 0.2079116908177589 0  0.9714900382928675 0.237080377715497 0  0.9639628606958535 0.2660368455666745 0  0.9555728057861409 0.2947551744109036 0  0.9463273837991645 0.3232096574544593 0  0.9362348706397375 0.351374824081342 0  0.925304300473997 0.3792254626529276 0  0.9135454576426013 0.4067366430757993 0  0.9009688679024196 0.4338837391175572 0  0.8875857890045545 0.4606424504506313 0  0.8734082006171303 0.4869888244043663 0  0.8584487936018667 0.5128992774059051 0  0.8427209586540398 0.5383506160906812 0  0.8262387743159956 0.5633200580636211 0  0.8090169943749481 0.5877852522924721 0  0.791071034656342 0.6117242991150054 0  0.7724169592246004 0.6351157698421777 0  0.7530714660036119 0.6579387259397116 0  0.7330518718298272 0.6801727377709184 0  0.7123760969513458 0.7017979028839902 0  0.6910626489868658 0.7227948638273906 0  0.6691306063588593 0.7431448254773932 0  0.646599601215801 0.7628295718622654 0  0.6234898018587348 0.7818314824680287 0  0.599821894687915 0.8001335480112053 0  0.5756170656856749 0.8177193856644304 0  0.550896981452104 0.8345732537213018 0  0.5256837698105061 0.8506800656873387 0  0.5000000000000017 0.8660254037844377 0  0.4738686624730005 0.880595531856737 0  0.4473131483156346 0.8943774076663359 0  0.4203572283095676 0.9073586945678639 0  0.3930250316539259 0.9195277725514497 0  0.3653410243663973 0.9308737486442034 0  0.3373299873828324 0.9413864666609023 0  0.30901699437495 0.9510565162951528 0  0.2804273893060055 0.9598752415428883 0  0.2515867637445114 0.9678347484506657 0  0.2225209339563175 0.974927912181823 0  0.1932559177955565 0.981148383394172 0  0.1638179114151409 0.9864905939235209 0  0.1342332658176588 0.9909497617679343 0  0.1045284632676568 0.994521895368273 0  0.07473009358642771 0.9972037971811799 0  0.04486483035051853 0.9989930665413145 0  0.01495940701526738 0.9998881018102733 0  -0.01495940701525971 0.9998881018102734 0  -0.04486483035051109 0.9989930665413148 0  -0.07473009358642028 0.9972037971811805 0  -0.1045284632676494 0.9945218953682737 0  -0.1342332658176512 0.9909497617679354 0  -0.1638179114151333 0.9864905939235222 0  -0.1932559177955488 0.9811483833941735 0  -0.2225209339563098 0.9749279121818246 0  -0.251586763744504 0.9678347484506676 0  -0.2804273893059981 0.9598752415428904 0  -0.3090169943749427 0.9510565162951551 0  -0.3373299873828252 0.9413864666609049 0  -0.3653410243663903 0.9308737486442061 0  -0.3930250316539188 0.9195277725514527 0  -0.4203572283095608 0.907358694567867 0  -0.4473131483156279 0.8943774076663392 0  -0.4738686624729939 0.8805955318567406 0  -0.4999999999999952 0.8660254037844414 0  -0.5256837698104998 0.8506800656873426 0  -0.5508969814520976 0.8345732537213059 0  -0.5756170656856686 0.8177193856644348 0  -0.5998218946879088 0.8001335480112099 0  -0.6234898018587286 0.7818314824680337 0  -0.6465996012157947 0.7628295718622707 0  -0.6691306063588534 0.7431448254773987 0  -0.6910626489868598 0.7227948638273962 0  -0.7123760969513403 0.701797902883996 0  -0.7330518718298218 0.6801727377709242 0  -0.7530714660036065 0.6579387259397177 0  -0.7724169592245951 0.6351157698421841 0  -0.7910710346563369 0.6117242991150119 0  -0.8090169943749432 0.5877852522924789 0  -0.8262387743159907 0.5633200580636281 0  -0.8427209586540351 0.5383506160906887 0  -0.8584487936018622 0.5128992774059127 0  -0.873408200617126 0.4869888244043741 0  -0.8875857890045504 0.4606424504506393 0  -0.9009688679024156 0.4338837391175654 0  -0.9135454576425975 0.4067366430758078 0  -0.9253043004739937 0.3792254626529358 0  -0.9362348706397345 0.3513748240813499 0  -0.9463273837991617 0.3232096574544674 0  -0.9555728057861383 0.2947551744109118 0  -0.9639628606958511 0.2660368455666829 0  -0.9714900382928655 0.2370803777155055 0  -0.9781476007338039 0.2079116908177676 0  -0.9839295885986281 0.1785568947986451 0  -0.9888308262251273 0.149042266176183 0  -0.9928469263418362 0.1193942245402531 0  -0.9959742939952382 0.08963930890344246 0  -0.9982101297677346 0.05980415394504331 0  -0.9995524322835031 0.02991546616940775 0  -1 9.44833808676605e-15 0  -0.9995524322835037 -0.02991546616938886 0  -0.9982101297677357 -0.05980415394502488 0  -0.9959742939952398 -0.08963930890342409 0  -0.9928469263418385 -0.1193942245402348 0  -0.98883082622513 -0.1490422661761648 0  -0.9839295885986314 -0.1785568947986269 0  -0.9781476007338077 -0.2079116908177495 0  -0.9714900382928698 -0.2370803777154876 0  -0.963962860695856 -0.2660368455666651 0  -0.9555728057861438 -0.2947551744108942 0  -0.9463273837991676 -0.32320965745445 0  -0.936234870639741 -0.3513748240813326 0  -0.9253043004740009 -0.3792254626529183 0  -0.9135454576426054 -0.40673664307579 0  -0.900968867902424 -0.433883739117548 0  -0.8875857890045591 -0.4606424504506226 0  -0.8734082006171351 -0.4869888244043576 0  -0.8584487936018719 -0.5128992774058965 0  -0.8427209586540453 -0.5383506160906727 0  -0.8262387743160013 -0.5633200580636125 0  -0.8090169943749543 -0.5877852522924637 0  -0.7910710346563485 -0.6117242991149969 0  -0.7724169592246068 -0.6351157698421698 0  -0.7530714660036186 -0.6579387259397038 0  -0.7330518718298338 -0.6801727377709114 0  -0.712376096951353 -0.7017979028839831 0  -0.6910626489868725 -0.722794863827384 0  -0.6691306063588667 -0.7431448254773866 0  -0.6465996012158082 -0.7628295718622593 0  -0.6234898018587427 -0.7818314824680225 0  -0.5998218946879228 -0.8001335480111994 0  -0.5756170656856826 -0.8177193856644249 0  -0.5508969814521115 -0.8345732537212966 0  -0.5256837698105143 -0.8506800656873336 0  -0.5000000000000097 -0.866025403784433 0  -0.4738686624730082 -0.8805955318567329 0  -0.4473131483156421 -0.8943774076663321 0  -0.4203572283095748 -0.9073586945678606 0  -0.3930250316539328 -0.9195277725514467 0  -0.365341024366404 -0.9308737486442007 0  -0.3373299873828396 -0.9413864666608998 0  -0.3090169943749561 -0.9510565162951508 0  -0.280427389306012 -0.9598752415428863 0  -0.2515867637445175 -0.9678347484506641 0  -0.2225209339563232 -0.9749279121818216 0  -0.1932559177955619 -0.981148383394171 0  -0.1638179114151469 -0.9864905939235199 0  -0.1342332658176636 -0.9909497617679337 0  -0.1045284632676622 -0.9945218953682724 0  -0.07473009358643271 -0.9972037971811795 0  -0.04486483035052398 -0.9989930665413143 0  -0.0149594070152715 -0.9998881018102733 0  0.01495940701525603 -0.9998881018102735 0  0.04486483035050676 -0.998993066541315 0  0.07473009358641727 -0.9972037971811807 0  0.1045284632676459 -0.9945218953682742 0  0.1342332658176482 -0.9909497617679357 0  0.1638179114151308 -0.9864905939235226 0  0.1932559177955467 -0.9811483833941739 0  0.2225209339563073 -0.9749279121818253 0  0.2515867637445026 -0.967834748450668 0  0.2804273893059963 -0.9598752415428909 0  0.3090169943749413 -0.9510565162951555 0  0.3373299873828234 -0.9413864666609055 0  0.3653410243663896 -0.9308737486442064 0  0.3930250316539186 -0.9195277725514528 0  0.42035722830956 -0.9073586945678674 0  0.4473131483156282 -0.894377407666339 0  0.4738686624729938 -0.8805955318567407 0  0.4999999999999954 -0.8660254037844413 0  0.5256837698105005 -0.8506800656873421 0  0.5508969814520986 -0.8345732537213052 0  0.5756170656856693 -0.8177193856644344 0  0.5998218946879097 -0.8001335480112093 0  0.6234898018587299 -0.7818314824680327 0  0.6465996012157963 -0.7628295718622693 0  0.6691306063588546 -0.7431448254773976 0  0.691062648986862 -0.7227948638273941 0  0.7123760969513417 -0.7017979028839945 0  0.7330518718298236 -0.6801727377709224 0  0.7530714660036091 -0.6579387259397148 0  0.7724169592245973 -0.6351157698421814 0  0.7910710346563393 -0.6117242991150089 0  0.8090169943749457 -0.5877852522924755 0  0.8262387743159935 -0.5633200580636242 0  0.8427209586540374 -0.538350616090685 0  0.8584487936018647 -0.5128992774059086 0  0.8734082006171284 -0.4869888244043695 0  0.887585789004553 -0.4606424504506343 0  0.9009688679024179 -0.4338837391175607 0  0.9135454576426002 -0.4067366430758018 0  0.9253043004739958 -0.3792254626529306 0  0.9362348706397365 -0.3513748240813446 0  0.9463273837991636 -0.3232096574544616 0  0.9555728057861403 -0.2947551744109056 0  0.963962860695853 -0.2660368455666762 0  0.9714900382928671 -0.2370803777154992 0  0.9781476007338056 -0.2079116908177599 0  0.9839295885986294 -0.1785568947986378 0  0.9888308262251284 -0.1490422661761753 0  0.9928469263418372 -0.1193942245402449 0  0.995974293995239 -0.08963930890343375 0  0.9982101297677352 -0.059804153945035 0  0.9995524322835033 -0.02991546616939811 0  0.7423938351871403 0.5704008633233268 0  0.7584057558025527 0.5530284815834979 0  0.7363228629222076 0.5493010726413158 0  0.7620977441255027 0.5806432003264883 0  -0.9213113450218861 -0.2090547876517857 0  -0.9337773903091067 -0.1851759037036784 0  -0.9098182189758808 -0.1781225281929285 0  -0.9478958570022571 -0.2016982381673201 0  0.5562557085152163 -0.7459967149907513 0  0.5884767527644846 -0.7391345827787295 0  0.5726685941880499 -0.7642920329940157 0  0.5956888038815158 -0.7713096078085359 0  -0.5895047743254781 -0.7727489811095577 0  -0.5903383314333993 -0.7467662254445735 0  -0.5676358176781396 -0.7499415784869571 0  -0.5793096344213973 -0.7220882502454179 0  -0.939959825248823 0.1383816576348925 0  -0.9380173115688388 0.1017876415881287 0  -0.9650873179534205 0.126654136271694 0  -0.9132463744795563 0.1264660320147342 0  0.6609254780405549 0.7164933837867429 0  0.6805227269282477 0.6924450283178498 0  -0.7360860194993737 -0.6360220403209111 0  -0.7522506025027842 -0.6109913539634985 0  -0.7200843314820756 -0.
[...]
<CellData  Scalars="f">
<DataArray  type="Float64"  Name="f"  format="ascii">101 101 100 100 101 100 100 101 100 100 101 100 100 101 100 100 101 100 100 101 100 100 101 100 100 101 100 100 101 100 100 101 100 100 101 100 100 101 100 100 100 101 100 100 101 100 100 101 100 100 101 100 100 101 100 100 101 100 100 101 100 100 101 100 101 100 100 101 100 100 101 100 100 101 100 100 101 100 100 101 100 100 101 100 100 101 100 100 101 100 100 101 100 100 101 100 100 101 100 100 101 100 100 101 100 100 101 100 100 100 101 100 100 101 100 101 100 100 100 101 100 100 101 100 100 100 101 100 100 101 100 100 101 100 100 101 100 100 101 100 100 101 100 100 101 100 100 101 100 100 101 100 100 101 100 100 101 100 100 101 100 100 101 100 100 101 100 100 101 100 100 101 100 100 101 100 100 101 100 100 100 101 100 100 101 100 100 101 100 100 101 100 100 101 100 100 101 100 100 101 100 100 100 101 100 100 101 100 100 101 100 100 101 100 100 101 100 100 101 100 100 101 100 100 101 100 100 100 101 100 100 101 100 100 101 100 100 101 100 100 101 100 100 101 100 100 101 100 100 101 100 100 101 100 100 101 100 100 101 100 100 101 100 100 101 100 100 101 100 100 100 101 100 100 101 100 100 101 100 100 101 100 100 101 100 100 101 100 100 101 100 100 101 100 100 101 100 100 101 100 100 101 100 100 101 100 100 101 100 100 101 100 100 101 100 100 101 100 100 101 100 100 101 100 100 101 100 100 101 100 100 101 100 100 101 100 100 101 100 100 101 100 100 101 100 100 100 101 100 100 101 100 100 101 100 100 101 100 100 101 100 100 101 100 100 101 100 100 101 100 100 100 101 100 100 101 100 100 101 100 100 101 100 100 100 101 100 100 101 100 101 100 100 100 101 100 100 101 100 100 101 100 101 100 100 100 101 100 100 101 100 100 101 100 100 101 100 100 101 100 100 101 100 100 101 100 100 101 100 100 101 100 100 101 100 100 101 100 100 101 100 100 101 100 100 101 100 100 101 100 100 101 100 100 101 100 100 101 100 100 101 100 100 100 101 100 101 100 100 100 101 100 100 101 100 100 101 100 100 101 100 100 101 100 100 101 100 100 100 101 100 100 101 100 100 100 101 100 100 101 100 100 101 100 100 101 100 100 101 100 100 101 100 100 101 100 100 101 100 100 101 100 100 100 101 100 100 101 100 100 101 100 100 101 100 100 101 100 100 101 100 100 100 101 100 100 101 100 100 101 100 100 101 100 100 101 100 100 101 100 100 101 100 100 101 100 100 101 100 100 100 101 100 100 101 100 100 101 100 100 101 100 100 101 100 100 101 100 100 101 100 100 101 100 100 101 100 100 101 100 100 101 100 100 101 100 100 101 100 100 101 100 100 100 101 100 100 101 100 100 101 100 100 100 101 100 100 101 100 100 100 101 100 101 100 100 100 101 100 100 101 100 100 101 100 100 100 100 100 100 100 100 100 100 100 100 100 100 100 100 100 100 100 100 100 100 100 100 100 100 100 100 100 100 100 100 100 100 100 100 100 100 100 100 100 100 100 100 100 100 100 100 100 100 100 100 100 100 100 100 100 100 100 100 100 100 100 100 100 100 100 100 100 100 100 100 100 100 100 100 100 100 100 100 100 100 100 100 100 100 100 100 100 100 100 100 100 100 100 100 100 100 100 100 100 100 100 100 100 100 100 100 100 100 100 100 100 100 100 100 100 100 100 100 100 100 100 100 100 100 100 100 100 100 100 100 100 100 100 100 100 100 100 100 100 100 100 100 100 100 100 100 100 100 100 100 100 100 100 100 100 100 100 100 100 100 100 100 100 100 100 100 100 100 100 100 100 100 100 100 100 100 100 100 100 100 100 100 100 100 100 100 100 100 100 100 100 100 100 100 100 100 100 100 100 100 100 100 100 100 100 100 100 100 100 100 100 100 100 100 100 100 100 100 100 100 100 100 100 100 100 100 100 100 100 100 100 100 100 100 100 100 100 100 100 100 100 100 100 100 100 100 100 100 100 100 100 100 100 100 100 100 100 100 100 100 100 100 100 100 100 100 100 100 100 100 100 100 100 100 100 100 100 100 100 100 100 100 100 100 100 100 100 100 100 100 100 100 100 100 100 100 100 100 100 100 100 100 100 100 100 100 100 100 100 100 100 100 100 100 100 100 100 100 100 100 100 100 100 100 100 100 100 100 100 100 100 100 100 100 100 100 100 100 100 100 100 100 100 100 100 100 100 100 100 100 100 100 100 100 100 100 100 100 100 100 100 100 100 100 100 100 100 100 100 100 100 100 100 100 100 100 100 100 100 100 100 100 100 100 100 100 100 100 100 100 100 100 100 100 100 100 100 100 100 100 100 100 100 100 100 100 100 100 100 100 100 100 100 100 100 100 100 100 100 100 100 100 100 100 100 100 100 100 100 100 100 100 100 100 100 100 100 100 100 100 100 100 100 100 100 100 100 100 100 100 100 100 100 100 100 100 100 100 100 100 100 100 100 100 100 100 100 100 100 100 100 100 100 100 100 100 100 100 100 100 100 100 100 100 100 100 100 100 100 100 100 100 100 100 100 100 100 100 100 100 100 100 100 100 100 100 100 100 100 100 100 100 100 100 100 100 100 100 100 100 100 100 100 100 100 100 100 100 100 100 100 100 100 100 100 100 100 100 100 100 100 100 100 100 100 100 100 100 100 100 100 100 100 100 100 100 100 100 100 100 100 100 100 100 100 100 100 100 100 100 100 100 100 100 100 100 100 100 100 100 100 100 100 100 100 100 100 100 100 100 100 100 100 100 100 100 100 100 100 100 100 100 100 100 100 100 100 100 100 100 100 100 100 100 100 100 100 100 100 100 100 100 100 100 100 100 100 100 100 100 100 100 100 100 100 100 100 100 100 100 100 100 100 100 100 100 100 100 100 100 100 100 100 100 100 100 100 100 100 100 100 100 100 100 100 100 100 100 100 100 100 100 100 100 100 100 100 100 100 100 100 100 100 100 100 100 100 100 100 100 100 100 100 100 100 100 100 100 100 100 100 100 100 100 100 100 100 100 100 100 100 100 100 100 100 100 100 100 100 100 100 100 100 100 100 100 100 100 100 100 100 100 100 100 100 100 100 100 100 100 100 100 100 100 100 100 100 100 100 100 100 100 100 100 100 100 100 100 100 100 100 100 100 100 100 100 100 100 100 100 100 100 100 100 100 100 100 100 100 100 100 100 100 100 100 100 100 100 100 100 100 100 100 100 100 100 100 100 100 100 100 100 100 100 100 100 100 100 100 100 100 100 100 100 100 100 100 100 100 100 100 100 100 100 100 100 100 100 100 100 100 100 100 100 100 100 100 100 100 100 100 100 100 100 100 100 100 100 100 100 100 100 100 100 100 100 100 100 100 100 100 100 100 100 100 100 100 100 100 100 100 100 100 100 100 100 100 100 100 100 100 100 100 100 100 100 100 100 100 100 100 100 100 100 100 100 100 100 100 100 100 100 100 100 100 100 100 100 100 100 100 100 100 100 100 100 100 100 100 100 100 100 100 100 100 100 100 100 100 100 100 100 100 100 100 100 100 100 100 100 100 100 100 100 100 100 100 100 100 100 100 100 100 100 100 100 100 100 100 100 100 100 100 100 100 100 100 100 100 100 100 100 100 100 100 100 100 100 100 100 100 100 100 100 100 100 100 100 100 100 100 100 100 100 100 100 100 100 100 100 100 100 100 100 100 100 100 100 100 100 100 100 100 100 100 100 100 100 100 100 100 100 100 100 100 100 100 100 100 100 100 100 100 100 100 100 100 100 100 100 100 100 100 100 100 100 100 100 100 100 100 100 100 100 100 100 100 100 100 100 100 100 100 100 100 100 100 100 100 100 100 100 100 100 100 100 100 100 100 100 100 100 100 100 100 100 100 100 100 100 100 100 100 100 100 100 100 100 100 100 100 100 100 100 100 100 100 100 100 100 100 100 100 100 100 100 100 100 100 100 100 100 100 100 100 100 100 100 100 100 100 100 100 100 100 100 100 100 100 100 100 100 100 100 100 100 100 100 100 100 100 100 100 100 100 100 100 100 100 100 100 100 100 100 100 100 100 100 100 100 100 100 100 100 100 100 100 100 100 100 100 100 100 100 100 100 100 100 100 100 100 100 100 100 100 100 100 100 100 100 100 100 100 100 100 100 100 100 100 100 100 100 100 100 100 100 100 100 100 100 100 100 100 100 100 100 100 100 100 100 100 100 100 100 100 100 100 100 100 100 100 100 100 100 100 100 100 100 100 100 100 100 100 100 100 100 100 100 100 100 100 100 100 100 100 100 100 100 100 100 100 100 100 100 100 100 100 100 100 100 100 100 100 100 100 100 100 100 100 100 100 100 100 100 100 100 100 100 100 100 100 100 100 100 100 100 100 100 100 100 100 100 100 100 100 100 100 100 100 100 100 100 100 100 100 100 100 100 100 100 100 100 100 100 100 100 100 100 100 100 100 100 100 100 100 100 100 100 100 100 100 100 100 100 100 100 100 100 100 100 100 100 100 100 100 100 100 100 100 100 100 100 100 100 100 100 100 100 100 100 100 100 100 100 100 100 100 100 100 100 100 100 100 100 100 100 100 100 100 100 100 100 100 100 100 100 100 100 100 100 100 100 100 100 100 100 100 100 100 100 100 100 100 100 100 100 100 100 100 100 100 100 100 100 100 100 100 100 100 100 100 100 100 100 100 100 100 100 100 100 100 100 100 100 100 100 100 100 100 100 100 100 100 100 100 100 100 100 100 100 100 100 100 100 100 100 100 100 100 100 100 100 100 100 100 100 100 100 100 100 100 100 100 100 100 100 100 100 100 100 100 100 100 100 100 100 100 100 100 100 100 100 100 100 100 100 100 100 100 100 100 100 100 100 100 100 100 100 100 100 100 100 100 100 100 100 100 100 100 100 100 100 100 100 100 100 100 100 100 100 100 100 100 100 100 100 100 100 100 100 100 100 100 100 100 100 100 100 100 100 100 100 100 100 100 100 100 100 100 100 100 100 100 100 100 100 100 100 100 100 100 100 100 100 100 100 100 100 100 100 100 100 100 100 100 100 100 100 100 100 100 100 100 100 100 100 100 100 100 100 100 100 100 100 100 100 100 100 100 100 100 100 100 100 100 100 100 100 100 100 100 100 100 100 100 100 100 100 100 100 100 100 100 100 100 100 100 100 100 100 100 100 100 100 100 100 100 100 100 100 100 100 100 100 100 100 100 100 100 100 100 100 100 100 100 100 100 100 100 100 100 100 100 100 100 100 100 100 100 100 100 100 100 100 100 100 100 100 100 100 100 100 100 100 100 100 100 100 100 100 100 100 100 100 100 100 100 100 100 100 100 100 100 100 100 100 100 100 100 100 100 100 100 100 100 100 100 100 100 100 100 100 100 100 100 100 100 100 100 100 100 100 100 100 100 100 100 100 100 100 100 100 100 100 100 100 100 100 100 100 100 100 100 100 100 100 100 100 100 100 100 100 100 100 100 100 100 100 100 100 100 100 100 100 100 100 100 100 100 100 100 100 100 100 100 100 100 100 100 100 100 100 100 100 100 100 100 100 100 100 100 100 100 100 100 100 100 100 100 100 100 100 100 100 100 100 100 100 100 100 100 100 100 100 100 100 100 100 100 100 100 100 100 100 100 100 100 100 100 100 100 100 100 100 100 100 100 100 100 100 100 100 100 100 100 100 100 100 100 100 100 100 100 100 100 100 100 100 100 100 100 100 100 100 100 100 100 100 100 100 100 100 100 100 100 100 100 100 100 100 100 100 100 100 100 100 100 100 100 100 100 100 100 100 100 100 100 100 100 100 100 100 100 100 100 100 100 100 100 100 100 100 100 100 100 100 100 100 100 100 100 100 100 100 100 100 100 100 100 100 100 100 100 100 100 100 100 100 100 100 100 100 100 100 100 100 100 100 100 100 100 100 100 100 100 100 100 100 100 100 100 100 100 100 100 100 100 100 100 100 100 100 100 100 100 100 100 100 100 100 100 100 100 100 100 100 100 100 100 100 100 100 100 100 100 100 100 100 100 100 100 100 100 100 100 100 100 100 100 100 100 100 100 100 100 100 100 100 100 100 100 100 100 100 100 100 100 100 100 100 100 100 100 100 100 100 100 100 100 100 100 100 100 100 100 100 100 100 100 100 100 100 100 100 100 100 100 100 100 100 100 100 100 100 100 100 100 100 100 100 100 100 100 100 100 100 100 100 100 100 100 100 100 100 100 100 100 100 100 100 100 100 100 100 100 100 100 100 100 100 100 100 100 100 100 100 100 100 100 100 100 100 100 100 100 100 100 100 100 100 100 100 100 100 100 100 100 100 100 100 100 100 100 100 100 100 100 100 100 100 100 100 100 100 100 100 100 100 100 100 100 100 100 100 100 100 100 100 100 100 100 100 100 100 100 100 100 100 100 100 100 100 100 100 100 100 100 100 100 100 100 100 100 100 100 100 100 100 100 100 100 100 100 100 100 100 100 100 100 100 100 100 100 100 100 100 100 100 100 100 100 100 100 100 100 100 100 100 100 100 100 100 100 100 100 100 100 100 100 100 100 100 100 100 100 100 100 100 100 100 100 100 100 100 100 100 100 100 100 100 100 100 100 100 100 100 100 100 100 100 100 100 100 100 100 100 100 100 100 100 100 100 100 100 100 100 100 100 100 100 100 100 100 100 100 100 100 100 100 100 100 100 100 100 100 100 100 100 100 100 100 100 100 100 100 100 100 100 100 100 100 100 100 100 100 100 100 100 100 100 100 100 100 100 100 100 100 100 100 100 100 100 100 100 100 100 100 100 100 100 100 100 100 100 100 100 100 100 100 100 100 100 100 100 100 100 100 100 100 100 100 100 100 100 100 100 100 100 100 100 100 100 100 100 100 100 100 100 100 100 100 100 100 100 100 100 100 100 100 100 100 100 100 100 100 100 100 100 100 100 100 100 100 100 100 100 100 100 100 100 100 100 100 100 100 100 100 100 100 100 100 100 100 100 100 100 100 100 100 100 100 100 100 100 100 100 100 100 100 100 100 100 100 100 100 100 100 100 100 100 100 100 100 100 100 100 100 100 100 100 100 100 100 100 100 100 100 100 100 100 100 100 100 100 100 100 100 100 100 100 100 100 100 100 100 100 100 100 100 100 100 100 100 100 100 100 100 100 100 100 100 100 100 100 100 100 100 100 100 100 100 100 100 100 100 100 100 100 100 100 100 100 100 100 100 100 100 100 100 100 100 100 100 100 100 100 100 100 100 100 100 100 100 100 100 100 100 100 100 100 100 100 100 100 100 100 100 100 100 100 100 100 100 100 100 100 100 100 100 100 100 100 100 100 100 100 100 100 100 100 100 100 100 100 100 100 100 100 100 100 100 100 100 100 100 100 100 100 100 100 100 100 100 100 100 100 100 100 100 100 100 100 100 100 100 100 100 100 100 100 100 100 100 100 100 100 100 100 100 100 100 100 100 100 100 100 100 100 100 100 100 100 100 100 100 100 100 100 100 100 100 100 100 100 100 100 100 100 100 100 100 100 100 100 100 100 100 100 100 100 100 100 100 100 100 100 100 100 100 100 100 100 100 100 100 100 100 100 100 100 100 100 100 100 100 100 100 100 100 100 100 100 100 100 100 100 100 100 100 100 100 100 100 100 100 100 100 100 100 100 100 100 100 100 100 100 100 100 100 100 100 100 100 100 100 100 100 100 100 100 100 100 100 100 100 100 100 100 100 100 100 100 100 100 100 100 100 100 100 100 100 100 100 100 100 100 100 100 100 100 100 100 100 100 100 100 100 100 100 100 100 100 100 100 100 100 100 100 100 100 100 100 100 100 100 100 100 100 100 100 100 100 100 100 100 100 100 100 100 100 100 100 100 100 100 100 100 100 100 100 100 100 100 100 100 100 100 100 100 100 100 100 100 100 100 100 100 100 100 100 100 100 100 100 100 100 100 100 100 100 100 100 100 100 100 100 100 100 100 100 100 100 100 100 100 100 100 100 100 100 100 100 100 100 100 100 100 100 100 100 100 100 100 100 100 100 100 100 100 100 100 100 100 100 100 100 100 100 100 100 100 100 100 100 100 100 100 100 100 100 100 100 100 100 100 100 100 100 100 100 100 100 100 100 100 100 100 100 100 100 100 100 100 100 100 100 100 100 100 100 100 100 100 100 100 100 100 100 100 100 100 100 100 100 100 100 100 100 100 100 100 100 100 100 100 100 100 100 100 100 100 100 100 100 100 100 100 100 100 100 100 100 100 100 100 100 100 100 100 100 100 100 100 100 100 100 100 100 100 100 100 100 100 100 100 100 100 100 100 100 100 100 100 100 100 100 100 100 100 100 100 100 100 100 100 100 100 100 100 100 100 100 100 100 100 100 100 100 100 100 100 100 100 100 100 100 100 100 100 100 100 100 100 100 100 100 100 100 100 100 100 100 100 100 100 100 100 100 100 100 100 100 100 100 100 100 100 100 100 100 100 100 100 100 100 100 100 100 100 100 100 100 100 100 100 100 100 100 100 100 100 100 100 100 100 100 100 100 100 100 100 100 100 100 100 100 100 100 100 100 100 100 100 100 100 100 100 100 100 100 100 100 100 100 100 100 100 100 100 100 100 100 100 100 100 100 100 100 100 100 100 100 100 100 100 100 100 100 100 100 100 100 100 100 100 100 100 100 100 100 100 100 100 100 100 100 100 100 100 100 100 100 100 100 100 100 100 100 100 100 100 100 100 100 100 100 100 100 100 100 100 100 100 100 100 100 100 100 100 100 100 100 100 100 100 100 100 100 100 100 100 100 100 100 100 100 100 100 100 100 100 100 100 100 100 100 100 100 100 100 100 100 100 100 100 100 100 100 100 100 100 100 100 100 100 100 100 100 100 100 100 100 100 100 100 100 100 100 100 100 100 100 100 100 100 100 100 100 100 100 100 100 100 100 100 100 100 100 100 100 100 100 100 100 100 100 100 100 100 100 100 100 100 100 100 100 100 100 100 100 100 100 100 100 100 100 100 100 100 100 100 100 100 100 100 100 100 100 100 100 100 100 100 100 100 100 100 100 100 100 100 100 100 100 100 100 100 100 100 100 100 100 100 100 100 100 100 100 100 100 100 100 100 100 100 100 100 100 100 100 100 100 100 100 100 100 100 100 100 100 100 100 100 100 100 100 100 100 100 100 100 100 100 100 100 100 100 100 100 100 100 100 100 100 100 100 100 100 100 100 100 100 100 100 100 100 100 100 100 100 100 100 100 100 100 100 100 100 100 100 100 100 100 100 100 100 100 100 100 100 100 100 100 100 100 100 100 100 100 100 100 100 100 100 100 100 100 100 100 100 100 100 100 100 100 100 100 100 100 100 100 100 100 100 100 100 100 100 100 100 100 100 100 100 100 100 100 100 100 100 100 100 100 100 100 100 100 100 100 100 100 100 100 100 100 100 100 100 100 100 100 100 100 100 100 100 100 100 100 100 100 100 100 100 100 100 100 100 100 100 100 100 100 100 100 100 100 100 100 100 100 100 100 100 100 100 100 100 100 100 100 100 100 100 100 100 100 100 100 100 100 100 100 100 100 100 100 100 100 100 100 100 100 100 100 100 100 100 100 100 100 100 100 100 100 100 100 100 100 100 100 100 100 100 100 100 100 100 100 100 100 100 100 100 100 100 100 100 100 100 100 100 100 100 100 100 100 100 100 100 100 100 100 100 100 100 100 100 100 100 100 100 100 100 100 100 100 100 100 100 100 100 100 100 100 100 100 100 100 100 100 100 100 100 100 100 100 100 100 100 100 100 100 100 100 100 100 100 100 100 100 100 100 100 100 100 100 100 100 100 100 100 100 100 100 100 100 100 100 100 100 100 100 100 100 100 100 100 100 100 100 100 100 100 100 100 100 100 100 100 100 100 100 100 100 100 100 100 100 100 100 100 100 100 100 100 100 100 100 100 100 100 100 100 100 100 100 100 100 100 100 100 100 100 100 100 100 100 100 100 100 100 100 100 100 100 100 100 100 100 100 100 100 100 100 100 100 100 100 100 100 100 100 100 100 100 100 100 100 100 100 100 100 100 100 100 100 100 100 100 100 100 100 100 100 100 100 100 100 100 100 100 100 100 100 100 100 100 100 100 100 100 100 100 100 100 100 100 100 100 100 100 100 100 100 100 100 100 100 100 100 100 100 100 100 100 100 100 100 100 100 100 100 100 100 100 100 100 100 100 100 100 100 100 100 100 100 100 100 100 100 100 100 100 100 100 100 100 100 100 100 100 100 100 100 100 100 100 100 100 100 100 100 100 100 100 100 100 100 100 100 100 100 100 100 100 100 100 100 100 100 100 100 100 100 100 100 100 100 100 100 100 100 100 100 100 100 100 100 100 100 100 100 100 100 100 100 100 100 100 100 100 100 100 100 100 100 100 100 100 100 100 100 100 100 100 100 100 100 100 100 100 100 100 100 100 100 100 100 100 100 100 100 100 100 100 100 100 100 100 100 100 100 100 100 100 100 100 100 100 100 100 100 100 100 100 100 100 100 100 100 100 100 100 100 100 100 100 100 100 100 100 100 100 100 100 100 100 100 100 100 100 100 100 100 100 100 100 100 100 100 100 100 100 100 100 100 100 100 100 100 100 100 100 100 100 100 100 100 100 100 100 100 100 100 100 100 100 100 100 100 100 100 100 100 100 100 100 100 100 100 100 100 100 100 100 100 100 100 100 100 100 100 100 100 100 100 100 100 100 100 100 100 100 100 100 100 100 100 100 100 100 100 100 100 100 100 100 100 100 100 100 100 100 100 100 100 100 100 100 100 100 100 100 100 100 100 100 100 100 100 100 100 100 100 100 100 100 100 100 100 100 100 100 100 100 100 100 100 100 100 100 100 100 100 100 100 100 100 100 100 100 100 100 100 100 100 100 100 100 100 100 100 100 100 100 100 100 100 100 100 100 100 100 100 100 100 100 100 100 100 100 100 100 100 100 100 100 100 100 100 100 100 100 100 100 100 100 100 100 100 100 100 100 100 100 100 100 100 100 100 100 100 100 100 100 100 100 100 100 100 100 100 100 100 100 100 100 100 100 100 100 100 100 100 100 100 100 100 100 100 100 100 100 100 100 100 100 100 100 100 100 100 100 100 100 100 100 100 100 100 100 100 100 100 100 100 100 100 100 100 100 100 100 100 100 100 100 100 100 100 100 100 100 100 100 100 100 100 100 100 100 100 100 100