<?xml version="1.0"?>
<VTKFile type="UnstructuredGrid"  version="0.1"  >
<UnstructuredGrid>
<Piece  NumberOfPoints="3721" NumberOfCells="10920">
<Points>
<DataArray  type="Float64"  NumberOfComponents="3"  format="ascii">0 0 0  0.01666666666666667 0 0  0.03333333333333333 0 0  0.05 0 0  0.06666666666666667 0 0  0.08333333333333333 0 0  0.1 0 0  0.1166666666666667 0 0  0.1333333333333333 0 0  0.15 0 0  0.1666666666666667 0 0  0.1833333333333333 0 0  0.2 0 0  0.2166666666666667 0 0  0.2333333333333333 0 0  0.25 0 0  0.2666666666666667 0 0  0.2833333333333333 0 0  0.3 0 0  0.3166666666666667 0 0  0.3333333333333333 0 0  0.35 0 0  0.3666666666666666 0 0  0.3833333333333334 0 0  0.4 0 0  0.4166666666666667 0 0  0.4333333333333333 0 0  0.45 0 0  0.4666666666666667 0 0  0.4833333333333333 0 0  0.5 0 0  0.5166666666666667 0 0  0.5333333333333333 0 0  0.55 0 0  0.5666666666666667 0 0  0.5833333333333334 0 0  0.6 0 0  0.6166666666666667 0 0  0.6333333333333333 0 0  0.65 0 0  0.6666666666666666 0 0  0.6833333333333333 0 0  0.7 0 0  0.7166666666666667 0 0  0.7333333333333333 0 0  0.75 0 0  0.7666666666666667 0 0  0.7833333333333333 0 0  0.8 0 0  0.8166666666666667 0 0  0.8333333333333334 0 0  0.85 0 0  0.8666666666666667 0 0  0.8833333333333333 0 0  0.9 0 0  0.9166666666666666 0 0  0.9333333333333333 0 0  0.95 0 0  0.9666666666666667 0 0  0.9833333333333333 0 0  1 0 0  0 0.03333333333333333 0  0.01666666666666667 0.03333333333333333 0  0.03333333333333333 0.03333333333333333 0  0.05 0.03333333333333333 0  0.06666666666666667 0.03333333333333333 0  0.08333333333333333 0.03333333333333333 0  0.1 0.03333333333333333 0  0.1166666666666667 0.03333333333333333 0  0.1333333333333333 0.03333333333333333 0  0.15 0.03333333333333333 0  0.1666666666666667 0.03333333333333333 0  0.1833333333333333 0.03333333333333333 0  0.2 0.03333333333333333 0  0.2166666666666667 0.03333333333333333 0  0.2333333333333333 0.03333333333333333 0  0.25 0.03333333333333333 0  0.2666666666666667 0.03333333333333333 0  0.2833333333333333 0.03333333333333333 0  0.3 0.03333333333333333 0  0.3166666666666667 0.03333333333333333 0  0.3333333333333333 0.03333333333333333 0  0.35 0.03333333333333333 0  0.3666666666666666 0.03333333333333333 0  0.3833333333333334 0.03333333333333333 0  0.4 0.03333333333333333 0  0.4166666666666667 0.03333333333333333 0  0.4333333333333333 0.03333333333333333 0  0.45 0.03333333333333333 0  0.4666666666666667 0.03333333333333333 0  0.4833333333333333 0.03333333333333333 0  0.5 0.03333333333333333 0  0.5166666666666667 0.03333333333333333 0  0.5333333333333333 0.03333333333333333 0  0.55 0.03333333333333333 0  0.5666666666666667 0.03333333333333333 0  0.5833333333333334 0.03333333333333333 0  0.6 0.03333333333333333 0  0.6166666666666667 0.03333333333333333 0  0.6333333333333333 0.03333333333333333 0  0.65 0.03333333333333333 0  0.6666666666666666 0.03333333333333333 0  0.6833333333333333 0.03333333333333333 0  0.7 0.03333333333333333 0  0.7166666666666667 0.03333333333333333 0  0.7333333333333333 0.03333333333333333 0  0.75 0.03333333333333333 0  0.7666666666666667 0.03333333333333333 0  0.7833333333333333 0.03333333333333333 0  0.8 0.03333333333333333 0  0.8166666666666667 0.03333333333333333 0  0.8333333333333334 0.03333333333333333 0  0.85 0.03333333333333333 0  0.8666666666666667 0.03333333333333333 0  0.8833333333333333 0.03333333333333333 0  0.9 0.03333333333333333 0  0.9166666666666666 0.03333333333333333 0  0.9333333333333333 0.03333333333333333 0  0.95 0.03333333333333333 0  0.9666666666666667 0.03333333333333333 0  0.9833333333333333 0.03333333333333333 0  1 0.03333333333333333 0  0 0.06666666666666667 0  0.01666666666666667 0.06666666666666667 0  0.03333333333333333 0.06666666666666667 0  0.05 0.06666666666666667 0  0.06666666666666667 0.06666666666666667 0  0.08333333333333333 0.06666666666666667 0  0.1 0.06666666666666667 0  0.1166666666666667 0.06666666666666667 0  0.1333333333333333 0.06666666666666667 0  0.15 0.06666666666666667 0  0.1666666666666667 0.06666666666666667 0  0.1833333333333333 0.06666666666666667 0  0.2 0.06666666666666667 0  0.2166666666666667 0.06666666666666667 0  0.2333333333333333 0.06666666666666667 0  0.25 0.06666666666666667 0  0.2666666666666667 0.06666666666666667 0  0.2833333333333333 0.06666666666666667 0  0.3 0.06666666666666667 0  0.3166666666666667 0.06666666666666667 0  0.3333333333333333 0.06666666666666667 0  0.35 0.06666666666666667 0  0.3666666666666666 0.06666666666666667 0  0.3833333333333334 0.06666666666666667 0  0.4 0.06666666666666667 0  0.4166666666666667 0.06666666666666667 0  0.4333333333333333 0.06666666666666667 0  0.45 0.06666666666666667 0  0.4666666666666667 0.06666666666666667 0  0.4833333333333333 0.06666666666666667 0  0.5 0.06666666666666667 0  0.5166666666666667 0.06666666666666667 0  0.5333333333333333 0.06666666666666667 0  0.55 0.06666666666666667 0  0.5666666666666667 0.06666666666666667 0  0.5833333333333334 0.06666666666666667 0  0.6 0.06666666666666667 0  0.6166666666666667 0.06666666666666667 0  0.6333333333333333 0.06666666666666667 0  0.65 0.06666666666666667 0  0.6666666666666666 0.06666666666666667 0  0.6833333333333333 0.06666666666666667 0  0.7 0.06666666666666667 0  0.7166666666666667 0.06666666666666667 0  0.7333333333333333 0.06666666666666667 0  0.75 0.06666666666666667 0  0.7666666666666667 0.06666666666666667 0  0.7833333333333333 0.06666666666666667 0  0.8 0.06666666666666667 0  0.8166666666666667 0.06666666666666667 0  0.8333333333333334 0.06666666666666667 0  0.85 0.06666666666666667 0  0.8666666666666667 0.06666666666666667 0  0.8833333333333333 0.06666666666666667 0  0.9 0.06666666666666667 0  0.9166666666666666 0.06666666666666667 0  0.9333333333333333 0.06666666666666667 0  0.95 0.06666666666666667 0  0.9666666666666667 0.06666666666666667 0  0.9833333333333333 0.06666666666666667 0  1 0.06666666666666667 0  0 0.1 0  0.01666666666666667 0.1 0  0.03333333333333333 0.1 0  0.05 0.1 0  0.06666666666666667 0.1 0  0.08333333333333333 0.1 0  0.1 0.1 0  0.1166666666666667 0.1 0  0.1333333333333333 0.1 0  0.15 0.1 0  0.1666666666666667 0.1 0  0.1833333333333333 0.1 0  0.2 0.1 0  0.2166666666666667 0.1 0  0.2333333333333333 0.1 0  0.25 0.1 0  0.2666666666666667 0.1 0  0.2833333333333333 0.1 0  0.3 0.1 0  0.3166666666666667 0.1 0  0.3333333333333333 0.1 0  0.35 0.1 0  0.3666666666666666 0.1 0  0.3833333333333334 0.1 0  0.4 0.1 0  0.4166666666666667 0.1 0  0.4333333333333333 0.1 0  0.45 0.1 0  0.4666666666666667 0.1 0  0.4833333333333333 0.1 0  0.5 0.1 0  0.5166666666666667 0.1 0  0.5333333333333333 0.1 0  0.55 0.1 0  0.5666666666666667 0.1 0  0.5833333333333334 0.1 0  0.6 0.1 0  0.6166666666666667 0.1 0  0.6333333333333333 0.1 0  0.65 0.1 0  0.6666666666666666 0.1 0  0.6833333333333333 0.1 0  0.7 0.1 0  0.7166666666666667 0.1 0  0.7333333333333333 0.1 0  0.75 0.1 0  0.7666666666666667 0.1 0  0.7833333333333333 0.1 0  0.8 0.1 0  0.8166666666666667 0.1 0  0.8333333333333334 0.1 0  0.85 0.1 0  0.8666666666666667 0.1 0  0.8833333333333333 0.1 0  0.9 0.1 0  0.9166666666666666 0.1 0  0.9333333333333333 0.1 0  0.95 0.1 0  0.9666666666666667 0.1 0  0.9833333333333333 0.1 0  1 0.1 0  0 0.1333333333333333 0  0.01666666666666667 0.1333333333333333 0  0.03333333333333333 0.1333333333333333 0  0.05 0.1333333333333333 0  0.06666666666666667 0.1333333333333333 0  0.08333333333333333 0.1333333333333333 0  0.1 0.1333333333333333 0  0.1166666666666667 0.1333333333333333 0  0.1333333333333333 0.1333333333333333 0  0.15 0.1333333333333333 0  0.1666666666666667 0.1333333333333333 0  0.1833333333333333 0.1333333333333333 0  0.2 0.1333333333333333 0  0.2166666666666667 0.1333333333333333 0  0.2333333333333333 0.1333333333333333 0  0.25 0.1333333333333333 0  0.2666666666666667 0.1333333333333333 0  0.2833333333333333 0.1333333333333333 0  0.3 0.1333333333333333 0  0.3166666666666667 0.1333333333333333 0  0.3333333333333333 0.1333333333333333 0  0.35 0.1333333333333333 0  0.3666666666666666 0.1333333333333333 0  0.3833333333333334 0.1333333333333333 0  0.4 0.1333333333333333 0  0.4166666666666667 0.1333333333333333 0  0.4333333333333333 0.1333333333333333 0  0.45 0.1333333333333333 0  0.4666666666666667 0.1333333333333333 0  0.4833333333333333 0.1333333333333333 0  0.5 0.1333333333333333 0  0.5166666666666667 0.1333333333333333 0  0.5333333333333333 0.1333333333333333 0  0.55 0.1333333333333333 0  0.5666666666666667 0.1333333333333333 0  0.5833333333333334 0.1333333333333333 0  0.6 0.1333333333333333 0  0.6166666666666667 0.1333333333333333 0  0.6333333333333333 0.1333333333333333 0  0.65 0.1333333333333333 0  0.6666666666666666 0.1333333333333333 0  0.6833333333333333 0.1333333333333333 0  0.7 0.1333333333333333 0  0.7166666666666667 0.1333333333333333 0  0.7333333333333333 0.1333333333333333 0  0.75 0.1333333333333333 0  0.7666666666666667 0.1333333333333333 0  0.7833333333333333 0.1333333333333333 0  0.8 0.1333333333333333 0  0.8166666666666667 0.1333333333333333 0  0.8333333333333334 0.1333333333333333 0  0.85 0.1333333333333333 0  0.8666666666666667 0.1333333333333333 0  0.8833333333333333 0.1333333333333333 0  0.9 0.1333333333333333 0  0.9166666666666666 0.1333333333333333 0  0.9333333333333333 0.1333333333333333 0  0.95 0.1333333333333333 0  0.9666666666666667 0.1333333333333333 0  0.9833333333333333 0.1333333333333333 0  1 0.1333333333333333 0  0 0.1666666666666667 0  0.01666666666666667 0.1666666666666667 0  0.03333333333333333 0.1666666666666667 0  0.05 0.1666666666666667 0  0.06666666666666667 0.1666666666666667 0  0.08333333333333333 0.1666666666666667 0  0.1 0.1666666666666667 0  0.1166666666666667 0.1666666666666667 0  0.1333333333333333 0.1666666666666667 0  0.15 0.1666666666666667 0  0.1666666666666667 0.1666666666666667 0  0.1833333333333333 0.1666666666666667 0  0.2 0.1666666666666667 0  0.2166666666666667 0.1666666666666667 0  0.2333333333333333 0.1666666666666667 0  0.25 0.1666666666666667 0  0.2666666666666667 0.1666666666666667 0  0.283333333333333
[...]
<CellData  Scalars="f">
<DataArray  type="Float64"  Name="f"  format="ascii">104 102 104 100 100 100 104 100 104 100 100 100 104 100 104 100 100 100 104 100 104 100 100 100 104 100 104 100 100 100 104 100 104 100 100 100 104 100 104 100 100 100 104 100 104 100 100 100 104 100 104 100 100 100 104 100 104 100 100 100 104 100 104 100 100 100 104 100 104 100 100 100 104 100 104 100 100 100 104 100 104 100 100 100 104 100 104 100 100 100 104 100 104 100 100 100 104 100 104 100 100 100 104 100 104 100 100 100 104 100 104 100 100 100 104 100 104 100 100 100 104 100 104 100 100 100 104 100 104 100 100 100 104 100 104 100 100 100 104 100 104 100 100 100 104 100 104 100 100 100 104 100 104 100 100 100 104 100 104 100 100 100 104 100 104 100 100 100 104 100 104 100 100 100 104 100 104 100 100 100 103 100 102 100 100 100 100 100 100 100 100 100 100 100 100 100 100 100 100 100 100 100 100 100 100 100 100 100 100 100 100 100 100 100 100 100 100 100 100 100 100 100 100 100 100 100 100 100 100 100 100 100 100 100 100 100 100 100 100 100 100 100 100 100 100 100 100 100 100 100 100 100 100 100 100 100 100 100 100 100 100 100 100 100 100 100 100 100 100 100 100 100 100 100 100 100 100 100 100 100 100 100 100 100 100 100 100 100 100 100 100 100 100 100 100 100 100 100 100 100 100 100 100 100 100 100 100 100 100 100 100 100 100 100 100 100 100 100 100 100 100 100 100 100 100 100 100 100 100 100 100 100 100 100 100 100 100 100 100 100 100 100 100 100 100 100 100 100 100 100 100 100 100 100 100 100 100 100 100 100 100 103 100 102 100 100 100 100 100 100 100 100 100 100 100 100 100 100 100 100 100 100 100 100 100 100 100 100 100 100 100 100 100 100 100 100 100 100 100 100 100 100 100 100 100 100 100 100 100 100 100 100 100 100 100 100 100 100 100 100 100 100 100 100 100 100 100 100 100 100 100 100 100 100 100 100 100 100 100 100 100 100 100 100 100 100 100 100 100 100 100 100 100 100 100 100 100 100 100 100 100 100 100 100 100 100 100 100 100 100 100 100 100 100 100 100 100 100 100 100 100 100 100 100 100 100 100 100 100 100 100 100 100 100 100 100 100 100 100 100 100 100 100 100 100 100 100 100 100 100 100 100 100 100 100 100 100 100 100 100 100 100 100 100 100 100 100 100 100 100 100 100 100 100 100 100 100 100 100 100 100 100 103 100 102 100 100 100 100 100 100 100 100 100 100 100 100 100 100 100 100 100 100 100 100 100 100 100 100 100 100 100 100 100 100 100 100 100 100 100 100 100 100 100 100 100 100 100 100 100 100 100 100 100 100 100 100 100 100 100 100 100 100 100 100 100 100 100 100 100 100 100 100 100 100 100 100 100 100 100 100 100 100 100 100 100 100 100 100 100 100 100 100 100 100 100 100 100 100 100 100 100 100 100 100 100 100 100 100 100 100 100 100 100 100 100 100 100 100 100 100 100 100 100 100 100 100 100 100 100 100 100 100 100 100 100 100 100 100 100 100 100 100 100 100 100 100 100 100 100 100 100 100 100 100 100 100 100 100 100 100 100 100 100 100 100 100 100 100 100 100 100 100 100 100 100 100 100 100 100 100 100 100 103 100 102 100 100 100 100 100 100 100 100 100 100 100 100 100 100 100 100 100 100 100 100 100 100 100 100 100 100 100 100 100 100 100 100 100 100 100 100 100 100 100 100 100 100 100 100 100 100 100 100 100 100 100 100 100 100 100 100 100 100 100 100 100 100 100 100 100 100 100 100 100 100 100 100 100 100 100 100 100 100 100 100 100 100 100 100 100 100 100 100 100 100 100 100 100 100 100 100 100 100 100 100 100 100 100 100 100 100 100 100 100 100 100 100 100 100 100 100 100 100 100 100 100 100 100 100 100 100 100 100 100 100 100 100 100 100 100 100 100 100 100 100 100 100 100 100 100 100 100 100 100 100 100 100 100 100 100 100 100 100 100 100 100 100 100 100 100 100 100 100 100 100 100 100 100 100 100 100 100 100 103 100 102 100 100 100 100 100 100 100 100 100 100 100 100 100 100 100 100 100 100 100 100 100 100 100 100 100 100 100 100 100 100 100 100 100 100 100 100 100 100 100 100 100 100 100 100 100 100 100 100 100 100 100 100 100 100 100 100 100 100 100 100 100 100 100 100 100 100 100 100 100 100 100 100 100 100 100 100 100 100 100 100 100 100 100 100 100 100 100 100 100 100 100 100 100 100 100 100 100 100 100 100 100 100 100 100 100 100 100 100 100 100 100 100 100 100 100 100 100 100 100 100 100 100 100 100 100 100 100 100 100 100 100 100 100 100 100 100 100 100 100 100 100 100 100 100 100 100 100 100 100 100 100 100 100 100 100 100 100 100 100 100 100 100 100 100 100 100 100 100 100 100 100 100 100 100 100 100 100 100 103 100 102 100 100 100 100 100 100 100 100 100 100 100 100 100 100 100 100 100 100 100 100 100 100 100 100 100 100 100 100 100 100 100 100 100 100 100 100 100 100 100 100 100 100 100 100 100 100 100 100 100 100 100 100 100 100 100 100 100 100 100 100 100 100 100 100 100 100 100 100 100 100 100 100 100 100 100 100 100 100 100 100 100 100 100 100 100 100 100 100 100 100 100 100 100 100 100 100 100 100 100 100 100 100 100 100 100 100 100 100 100 100 100 100 100 100 100 100 100 100 100 100 100 100 100 100 100 100 100 100 100 100 100 100 100 100 100 100 100 100 100 100 100 100 100 100 100 100 100 100 100 100 100 100 100 100 100 100 100 100 100 100 100 100 100 100 100 100 100 100 100 100 100 100 100 100 100 100 100 100 103 100 102 100 100 100 100 100 100 100 100 100 100 100 100 100 100 100 100 100 100 100 100 100 100 100 100 100 100 100 100 100 100 100 100 100 100 100 100 100 100 100 100 100 100 100 100 100 100 100 100 100 100 100 100 100 100 100 100 100 100 100 100 100 100 100 100 100 100 100 100 100 100 100 100 100 100 100 100 100 100 100 100 100 100 100 100 100 100 100 100 100 100 100 100 100 100 100 100 100 100 100 100 100 100 100 100 100 100 100 100 100 100 100 100 100 100 100 100 100 100 100 100 100 100 100 100 100 100 100 100 100 100 100 100 100 100 100 100 100 100 100 100 100 100 100 100 100 100 100 100 100 100 100 100 100 100 100 100 100 100 100 100 100 100 100 100 100 100 100 100 100 100 100 100 100 100 100 100 100 100 103 100 102 100 100 100 100 100 100 100 100 100 100 100 100 100 100 100 100 100 100 100 100 100 100 100 100 100 100 100 100 100 100 100 100 100 100 100 100 100 100 100 100 100 100 100 100 100 100 100 100 100 100 100 100 100 100 100 100 100 100 100 100 100 100 100 100 100 100 100 100 100 100 100 100 100 100 100 100 100 100 100 100 100 100 100 100 100 100 100 100 100 100 100 100 100 100 100 100 100 100 100 100 100 100 100 100 100 100 100 100 100 100 100 100 100 100 100 100 100 100 100 100 100 100 100 100 100 100 100 100 100 100 100 100 100 100 100 100 100 100 100 100 100 100 100 100 100 100 100 100 100 100 100 100 100 100 100 100 100 100 100 100 100 100 100 100 100 100 100 100 100 100 100 100 100 100 100 100 100 100 103 100 102 100 100 100 100 100 100 100 100 100 100 100 100 100 100 100 100 100 100 100 100 100 100 100 100 100 100 100 100 100 100 100 100 100 100 100 100 100 100 100 100 100 100 100 100 100 100 100 100 100 100 100 100 100 100 100 100 100 100 100 100 100 100 100 100 100 100 100 100 100 100 100 100 100 100 100 100 100 100 100 100 100 100 100 100 100 100 100 100 100 100 100 100 100 100 100 100 100 100 100 100 100 100 100 100 100 100 100 100 100 100 100 100 100 100 100 100 100 100 100 100 100 100 100 100 100 100 100 100 100 100 100 100 100 100 100 100 100 100 100 100 100 100 100 100 100 100 100 100 100 100 100 100 100 100 100 100 100 100 100 100 100 100 100 100 100 100 100 100 100 100 100 100 100 100 100 100 100 100 103 100 102 100 100 100 100 100 100 100 100 100 100 100 100 100 100 100 100 100 100 100 100 100 100 100 100 100 100 100 100 100 100 100 100 100 100 100 100 100 100 100 100 100 100 100 100 100 100 100 100 100 100 100 100 100 100 100 100 100 100 100 100 100 100 100 100 100 100 100 100 100 100 100 100 100 100 100 100 100 100 100 100 100 100 100 100 100 100 100 100 100 100 100 100 100 100 100 100 100 100 100 100 100 100 100 100 100 100 100 100 100 100 100 100 100 100 100 100 100 100 100 100 100 100 100 100 100 100 100 100 100 100 100 100 100 100 100 100 100 100 100 100 100 100 100 100 100 100 100 100 100 100 100 100 100 100 100 100 100 100 100 100 100 100 100 100 100 100 100 100 100 100 100 100 100 100 100 100 100 100 103 100 102 100 100 100 100 100 100 100 100 100 100 100 100 100 100 100 100 100 100 100 100 100 100 100 100 100 100 100 100 100 100 100 100 100 100 100 100 100 100 100 100 100 100 100 100 100 100 100 100 100 100 100 100 100 100 100 100 100 100 100 100 100 100 100 100 100 100 100 100 100 100 100 100 100 100 100 100 100 100 100 100 100 100 100 100 100 100 100 100 100 100 100 100 100 100 100 100 100 100 100 100 100 100 100 100 100 100 100 100 100 100 100 100 100 100 100 100 100 100 100 100 100 100 100 100 100 100 100 100 100 100 100 100 100 100 100 100 100 100 100 100 100 100 100 100 100 100 100 100 100 100 100 100 100 100 100 100 100 100 100 100 100 100 100 100 100 100 100 100 100 100 100 100 100 100 100 100 100 100 103 100 102 100 100 100 100 100 100 100 100 100 100 100 100 100 100 100 100 100 100 100 100 100 100 100 100 100 100 100 100 100 100 100 100 100 100 100 100 100 100 100 100 100 100 100 100 100 100 100 100 100 100 100 100 100 100 100 100 100 100 100 100 100 100 100 100 100 100 100 100 100 100 100 100 100 100 100 100 100 100 100 100 100 100 100 100 100 100 100 100 100 100 100 100 100 100 100 100 100 100 100 100 100 100 100 100 100 100 100 100 100 100 100 100 100 100 100 100 100 100 100 100 100 100 100 100 100 100 100 100 100 100 100 100 100 100 100 100 100 100 100 100 100 100 100 100 100 100 100 100 100 100 100 100 100 100 100 100 100 100 100 100 100 100 100 100 100 100 100 100 100 100 100 100 100 100 100 100 100 100 103 100 102 100 100 100 100 100 100 100 100 100 100 100 100 100 100 100 100 100 100 100 100 100 100 100 100 100 100 100 100 100 100 100 100 100 100 100 100 100 100 100 100 100 100 100 100 100 100 100 100 100 100 100 100 100 100 100 100 100 100 100 100 100 100 100 100 100 100 100 100 100 100 100 100 100 100 100 100 100 100 100 100 100 100 100 100 100 100 100 100 100 100 100 100 100 100 100 100 100 100 100 100 100 100 100 100 100 100 100 100 100 100 100 100 100 100 100 100 100 100 100 100 100 100 100 100 100 100 100 100 100 100 100 100 100 100 100 100 100 100 100 100 100 100 100 100 100 100 100 100 100 100 100 100 100 100 100 100 100 100 100 100 100 100 100 100 100 100 100 100 100 100 100 100 100 100 100 100 100 100 103 100 102 100 100 100 100 100 100 100 100 100 100 100 100 100 100 100 100 100 100 100 100 100 100 100 100 100 100 100 100 100 100 100 100 100 100 100 100 100 100 100 100 100 100 100 100 100 100 100 100 100 100 100 100 100 100 100 100 100 100 100 100 100 100 100 100 100 100 100 100 100 100 100 100 100 100 100 100 100 100 100 100 100 100 100 100 100 100 100 100 100 100 100 100 100 100 100 100 100 100 100 100 100 100 100 100 100 100 100 100 100 100 100 100 100 100 100 100 100 100 100 100 100 100 100 100 100 100 100 100 100 100 100 100 100 100 100 100 100 100 100 100 100 100 100 100 100 100 100 100 100 100 100 100 100 100 100 100 100 100 100 100 100 100 100 100 100 100 100 100 100 100 100 100 100 100 100 100 100 100 103 100 102 100 100 100 100 100 100 100 100 100 100 100 100 100 100 100 100 100 100 100 100 100 100 100 100 100 100 100 100 100 100 100 100 100 100 100 100 100 100 100 100 100 100 100 100 100 100 100 100 100 100 100 100 100 100 100 100 100 100 100 100 100 100 100 100 100 100 100 100 100 100 100 100 100 100 100 100 100 100 100 100 100 100 100 100 100 100 100 100 100 100 100 100 100 100 100 100 100 100 100 100 100 100 100 100 100 100 100 100 100 100 100 100 100 100 100 100 100 100 100 100 100 100 100 100 100 100 100 100 100 100 100 100 100 100 100 100 100 100 100 100 100 100 100 100 100 100 100 100 100 100 100 100 100 100 100 100 100 100 100 100 100 100 100 100 100 100 100 100 100 100 100 100 100 100 100 100 100 100 103 100 102 100 100 100 100 100 100 100 100 100 100 100 100 100 100 100 100 100 100 100 100 100 100 100 100 100 100 100 100 100 100 100 100 100 100 100 100 100 100 100 100 100 100 100 100 100 100 100 100 100 100 100 100 100 100 100 100 100 100 100 100 100 100 100 100 100 100 100 100 100 100 100 100 100 100 100 100 100 100 100 100 100 100 100 100 100 100 100 100 100 100 100 100 100 100 100 100 100 100 100 100 100 100 100 100 100 100 100 100 100 100 100 100 100 100 100 100 100 100 100 100 100 100 100 100 100 100 100 100 100 100 100 100 100 100 100 100 100 100 100 100 100 100 100 100 100 100 100 100 100 100 100 100 100 100 100 100 100 100 100 100 100 100 100 100 100 100 100 100 100 100 100 100 100 100 100 100 100 100 103 100 102 100 100 100 100 100 100 100 100 100 100 100 100 100 100 100 100 100 100 100 100 100 100 100 100 100 100 100 100 100 100 100 100 100 100 100 100 100 100 100 100 100 100 100 100 100 100 100 100 100 100 100 100 100 100 100 100 100 100 100 100 100 100 100 100 100 100 100 100 100 100 100 100 100 100 100 100 100 100 100 100 100 100 100 100 100 100 100 100 100 100 100 100 100 100 100 100 100 100 100 100 100 100 100 100 100 100 100 100 100 100 100 100 100 100 100 100 100 100 100 100 100 100 100 100 100 100 100 100 100 100 100 100 100 100 100 100 100 100 100 100 100 100 100 100 100 100 100 100 100 100 100 100 100 100 100 100 100 100 100 100 100 100 100 100 100 100 100 100 100 100 100 100 100 100 100 100 100 100 103 100 102 100 100 100 100 100 100 100 100 100 100 100 100 100 100 100 100 100 100 100 100 100 100 100 100 100 100 100 100 100 100 100 100 100 100 100 100 100 100 100 100 100 100 100 100 100 100 100 100 100 100 100 100 100 100 100 100 100 100 100 100 100 100 100 100 100 100 100 100 100 100 100 100 100 100 100 100 100 100 100 100 100 100 100 100 100 100 100 100 100 100 100 100 100 100 100 100 100 100 100 100 100 100 100 100 100 100 100 100 100 100 100 100 100 100 100 100 100 100 100 100 100 100 100 100 100 100 100 100 100 100 100 100 100 100 100 100 100 100 100 100 100 100 100 100 100 100 100 100 100 100 100 100 100 100 100 100 100 100 100 100 100 100 100 100 100 100 100 100 100 100 100 100 100 100 100 100 100 100 103 100 102 100 100 100 100 100 100 100 100 100 100 100 100 100 100 100 100 100 100 100 100 100 100 100 100 100 100 100 100 100 100 100 100 100 100 100 100 100 100 100 100 100 100 100 100 100 100 100 100 100 100 100 100 100 100 100 100 100 100 100 100 100 100 100 100 100 100 100 100 100 100 100 100 100 100 100 100 100 100 100 100 100 100 100 100 100 100 100 100 100 100 100 100 100 100 100 100 100 100 100 100 100 100 100 100 100 100 100 100 100 100 100 100 100 100 100 100 100 100 100 100 100 100 100 100 100 100 100 100 100 100 100 100 100 100 100 100 100 100 100 100 100 100 100 100 100 100 100 100 100 100 100 100 100 100 100 100 100 100 100 100 100 100 100 100 100 100 100 100 100 100 100 100 100 100 100 100 100 100 103 100 102 100 100 100 100 100 100 100 100 100 100 100 100 100 100 100 100 100 100 100 100 100 100 100 100 100 100 100 100 100 100 100 100 100 100 100 100 100 100 100 100 100 100 100 100 100 100 100 100 100 100 100 100 100 100 100 100 100 100 100 100 100 100 100 100 100 100 100 100 100 100 100 100 100 100 100 100 100 100 100 100 100 100 100 100 100 100 100 100 100 100 100 100 100 100 100 100 100 100 100 100 100 100 100 100 100 100 100 100 100 100 100 100 100 100 100 100 100 100 100 100 100 100 100 100 100 100 100 100 100 100 100 100 100 100 100 100 100 100 100 100 100 100 100 100 100 100 100 100 100 100 100 100 100 100 100 100 100 100 100 100 100 100 100 100 100 100 100 100 100 100 100 100 100 100 100 100 100 100 103 100 102 100 100 100 100 100 100 100 100 100 100 100 100 100 100 100 100 100 100 100 100 100 100 100 100 100 100 100 100 100 100 100 100 100 100 100 100 100 100 100 100 100 100 100 100 100 100 100 100 100 100 100 100 100 100 100 100 100 100 100 100 100 100 100 100 100 100 100 100 100 100 100 100 100 100 100 100 100 100 100 100 100 100 100 100 100 100 100 100 100 100 100 100 100 100 100 100 100 100 100 100 100 100 100 100 100 100 100 100 100 100 100 100 100 100 100 100 100 100 100 100 100 100 100 100 100 100 100 100 100 100 100 100 100 100 100 100 100 100 100 100 100 100 100 100 100 100 100 100 100 100 100 100 100 100 100 100 100 100 100 100 100 100 100 100 100 100 100 100 100 100 100 100 100 100 100 100 100 100 103 100 102 100 100 100 100 100 100 100 100 100 100 100 100 100 100 100 100 100 100 100 100 100 100 100 100 100 100 100 100 100 100 100 100 100 100 100 100 100 100 100 100 100 100 100 100 100 100 100 100 100 100 100 100 100 100 100 100 100 100 100 100 100 100 100 100 100 100 100 100 100 100 100 100 100 100 100 100 100 100 100 100 100 100 100 100 100 100 100 100 100 100 100 100 100 100 100 100 100 100 100 100 100 100 100 100 100 100 100 100 100 100 100 100 100 100 100 100 100 100 100 100 100 100 100 100 100 100 100 100 100 100 100 100 100 100 100 100 100 100 100 100 100 100 100 100 100 100 100 100 100 100 100 100 100 100 100 100 100 100 100 100 100 100 100 100 100 100 100 100 100 100 100 100 100 100 100 100 100 100 103 100 102 100 100 100 100 100 100 100 100 100 100 100 100 100 100 100 100 100 100 100 100 100 100 100 100 100 100 100 100 100 100 100 100 100 100 100 100 100 100 100 100 100 100 100 100 100 100 100 100 100 100 100 100 100 100 100 100 100 100 100 100 100 100 100 100 100 100 100 100 100 100 100 100 100 100 100 100 100 100 100 100 100 100 100 100 100 100 100 100 100 100 100 100 100 100 100 100 100 100 100 100 100 100 100 100 100 100 100 100 100 100 100 100 100 100 100 100 100 100 100 100 100 100 100 100 100 100 100 100 100 100 100 100 100 100 100 100 100 100 100 100 100 100 100 100 100 100 100 100 100 100 100 100 100 100 100 100 100 100 100 100 100 100 100 100 100 100 100 100 100 100 100 100 100 100 100 100 100 100 103 100 102 100 100 100 100 100 100 100 100 100 100 100 100 100 100 100 100 100 100 100 100 100 100 100 100 100 100 100 100 100 100 100 100 100 100 100 100 100 100 100 100 100 100 100 100 100 100 100 100 100 100 100 100 100 100 100 100 100 100 100 100 100 100 100 100 100 100 100 100 100 100 100 100 100 100 100 100 100 100 100 100 100 100 100 100 100 100 100 100 100 100 100 100 100 100 100 100 100 100 100 100 100 100 100 100 100 100 100 100 100 100 100 100 100 100 100 100 100 100 100 100 100 100 100 100 100 100 100 100 100 100 100 100 100 100 100 100 100 100 100 100 100 100 100 100 100 100 100 100 100 100 100 100 100 100 100 100 100 100 100 100 100 100 100 100 100 100 100 100 100 100 100 100 100 100 100 100 100 100 103 100 102 100 100 100 100 100 100 100 100 100 100 100 100 100 100 100 100 100 100 100 100 100 100 100 100 100 100 100 100 100 100 100 100 100 100 100 100 100 100 100 100 100 100 100 100 100 100 100 100 100 100 100 100 100 100 100 100 100 100 100 100 100 100 100 100 100 100 100 100 100 100 100 100 100 100 100 100 100 100 100 100 100 100 100 100 100 100 100 100 100 100 100 100 100 100 100 100 100 100 100 100 100 100 100 100 100 100 100 100 100 100 100 100 100 100 100 100 100 100 100 100 100 100 100 100 100 100 100 100 100 100 100 100 100 100 100 100 100 100 100 100 100 100 100 100 100 100 100 100 100 100 100 100 100 100 100 100 100 100 100 100 100 100 100 100 100 100 100 100 100 100 100 100 100 100 100 100 100 100 103 100 102 100 100 100 100 100 100 100 100 100 100 100 100 100 100 100 100 100 100 100 100 100 100 100 100 100 100 100 100 100 100 100 100 100 100 100 100 100 100 100 100 100 100 100 100 100 100 100 100 100 100 100 100 100 100 100 100 100 100 100 100 100 100 100 100 100 100 100 100 100 100 100 100 100 100 100 100 100 100 100 100 100 100 100 100 100 100 100 100 100 100 100 100 100 100 100 100 100 100 100 100 100 100 100 100 100 100 100 100 100 100 100 100 100 100 100 100 100 100 100 100 100 100 100 100 100 100 100 100 100 100 100 100 100 100 100 100 100 100 100 100 100 100 100 100 100 100 100 100 100 100 100 100 100 100 100 100 100 100 100 100 100 100 100 100 100 100 100 100 100 100 100 100 100 100 100 100 100 100 103 100 102 100 100 100 100 100 100 100 100 100 100 100 100 100 100 100 100 100 100 100 100 100 100 100 100 100 100 100 100 100 100 100 100 100 100 100 100 100 100 100 100 100 100 100 100 100 100 100 100 100 100 100 100 100 100 100 100 100 100 100 100 100 100 100 100 100 100 100 100 100 100 100 100 100 100 100 100 100 100 100 100 100 100 100 100 100 100 100 100 100 100 100 100